!--------------------------------------------------
! S-parameter Generated by TDK Corporation
! Copyright(C) 2018 TDK Corporation.
! All Rights Reserved.
!--------------------------------------------------
! Balun
! Date: 2018/06
! TDK P/N: HHM17147A1
!--------------------------------------------------
! Frequency: Start=0.3MHz Stop=20.0GHz
! Port Assignments
!                   _____
!                  |     |---2(Balance)
!   1(Unbalance)---|     |
!                  |_____|---3(Balance)
!--------------------------------------------------
! Terms and conditions regarding TDK Simulation Models
! (1)This simulation model is being provided solely for informational purposes. Please refer to the specifications of the products in terms of detailed characteristics of such products.
! (2)In no event shall TDK Corporation of any of its subsidiaries be liable for any loss or damage arising, directly or indirectly, 
!    From any information contained in this simulation model, including, but not limited to loss or damages arising from any inaccuracies, omissions or errors in connection with such information.
! (3)Any and all copyrights on this simulation model are owned by TDK Corporation.
!    Duplication or redistribution of this simulation model without prior written permission from TDK Corporation is prohibited.
! (4)This simulation model is subject to any modification or change without any prior notice.
! (5)Neither TDK Corporation nor any of its subsidiaries shall make any warranty, express or implied, 
!    Including but not limited to the correctness, implied warranties of merchantability and fitness for a particular purpose with respect to this simulation models.
! (6)The use of this simulation model shall be deemed to have consented to the terms and conditions hereof.
!--------------------------------------------------
!
# MHz S DB R 50
0.3 0.0172391381107 -0.24959102 -89.7028050356 -133.84874 -84.0743012318 4.0061064
 -85.5376375766 64.352989 -0.609409180324 179.91707 -60.7760693625 76.580902
 -85.4994837261 74.505554 -63.569192312 89.558434 -0.597846146555 -179.71964
6.54990625 -0.00487832298257 -1.4176513 -78.2142645439 52.851841 -74.0377039329 115.29461
 -77.7192623483 38.146942 -0.663839023696 178.06499 -37.52068825 67.561394
 -74.033813551 121.51625 -37.554881403 67.908112 -0.656950107434 177.96036
12.7998125 -0.00128612803422 -2.7942343 -67.5638702722 26.473503 -65.6057857108 135.07599
 -67.8750820859 33.142456 -0.731529910179 176.577 -33.2814101807 53.590519
 -65.9170754926 141.38116 -33.2791009055 53.625484 -0.736586749064 176.36378
19.04971875 -0.00202248427207 -4.1379766 -62.5491714208 19.677351 -59.6966875808 146.62595
 -62.1303574765 21.428738 -0.793166720954 175.31244 -31.4647546734 44.431725
 -60.1969716123 147.91481 -31.4850115332 44.440399 -0.801567957921 175.10487
25.299625 -0.00117475915366 -5.5075798 -57.4482447329 12.914481 -55.4105407556 150.34271
 -57.534697784 11.958821 -0.834529298052 174.16418 -30.4898350701 38.671463
 -55.6082047008 150.68109 -30.5106051543 38.616127 -0.84482717442 173.94905
31.54953125 -0.00323948541054 -6.8839154 -53.9859777952 8.0364628 -51.9283112747 153.02579
 -54.0910156052 8.3334579 -0.869871134461 173.04289 -29.8812227391 34.714066
 -51.9408482546 153.53375 -29.888017085 34.710842 -0.881209214943 172.78029
37.7994375 -0.00423801070031 -8.233551 -51.0343224964 4.2709756 -48.9575156658 154.83224
 -51.0125150282 3.8608956 -0.896897172356 171.90016 -29.4399276021 32.009487
 -49.0181781301 154.67429 -29.4610441244 31.913324 -0.910276174949 171.64247
44.04934375 -0.00787967721471 -9.6154547 -48.3491539875 0.83572096 -46.4401091471 155.41412
 -48.3132963447 0.73353899 -0.921956134612 170.79993 -29.1002816649 29.892227
 -46.4777783669 155.4579 -29.125542671 29.923899 -0.935840289505 170.48135
50.29925 -0.00851495443103 -10.985208 -46.1212439383 -1.8875587 -44.2217632989 155.76683
 -46.1044451625 -1.664037 -0.939538384731 169.68474 -28.840685762 28.365816
 -44.2690983349 155.72847 -28.8552994613 28.392435 -0.955715327703 169.34981
56.54915625 -0.0112635179862 -12.360415 -44.0852977493 -4.3248973 -42.3064179516 155.62
 -44.0676489524 -4.3706937 -0.959611442434 168.58012 -28.6160425306 27.165302
 -42.2815861552 155.67229 -28.6312442604 27.192444 -0.970795186921 168.22137
62.7990625 -0.011529481225 -13.74482 -42.3284632232 -6.0603237 -40.5156511477 155.45943
 -42.2619378184 -6.4443717 -0.975835761467 167.47615 -28.4185566882 26.183029
 -40.5140852943 155.37077 -28.4348983028 26.26753 -0.988226061837 167.05699
69.04896875 -0.0123148943718 -15.137123 -40.632306317 -8.131752 -38.933660582 154.99097
 -40.6380478037 -8.3732157 -0.989408352333 166.37215 -28.247761847 25.406624
 -38.9030801098 154.88647 -28.2603645821 25.4547 -1.00285702211 165.89638
75.298875 -0.0156103156365 -16.525295 -39.1991080402 -10.24364 -37.4412547592 154.35464
 -39.1636004284 -10.122493 -1.00562918404 165.25282 -28.0945382588 24.707642
 -37.4293989123 154.23912 -28.1054612226 24.750166 -1.01634041221 164.76157
81.54878125 -0.0208040615302 -17.931847 -37.812171482 -11.981393 -36.1030744632 153.70004
 -37.7802009588 -12.129137 -1.01819832475 164.13419 -27.9554945187 24.107973
 -36.0787661153 153.57568 -27.9576391647 24.126993 -1.02933479148 163.59807
87.7986875 -0.0246286330469 -19.333979 -36.5355908635 -13.628538 -34.8421159015 152.8782
 -36.5060334029 -13.771431 -1.03127529754 163.02351 -27.8238535072 23.521801
 -34.8277212127 152.75632 -27.8334948062 23.561825 -1.04026966037 162.45554
94.04859375 -0.0282351151758 -20.747713 -35.3474522452 -15.360725 -33.6691331818 151.93121
 -35.3180927502 -15.483332 -1.04358621709 161.89078 -27.7053896347 22.992632
 -33.6462941497 151.91644 -27.7241186402 22.99954 -1.05268384357 161.29262
100.2985 -0.0322453435787 -22.14974 -34.2316625415 -16.930582 -32.5653181067 151.07414
 -34.1903365426 -17.084408 -1.05448236854 160.78349 -27.6002771955 22.504887
 -32.5582272044 151.00368 -27.6186184328 22.518499 -1.06327894049 160.13306
106.5484063 -0.0399519841218 -23.58444 -33.1836292532 -18.552794 -31.5310230625 150.1255
 -33.1583864505 -18.633444 -1.06598040659 159.66985 -27.512160893 22.004023
 -31.5137238154 150.0134 -27.5217979169 22.031189 -1.07802930913 158.95757
112.7983125 -0.043748071103 -24.991356 -32.1973434321 -20.139717 -30.5457703569 149.12349
 -32.1687106773 -20.272284 -1.07727972057 158.54713 -27.4224884391 21.464493
 -30.5418449324 149.08081 -27.4417639501 21.536417 -1.0871942092 157.78967
119.0482188 -0.0490898748529 -26.435366 -31.253898885 -21.614552 -29.6170275004 148.00533
 -31.2284458413 -21.706638 -1.08695775823 157.42595 -27.3484690024 20.948477
 -29.6053724906 148.0928 -27.3677996564 21.104021 -1.09857706038 156.63554
125.298125 -0.0563830911097 -27.881367 -30.3669496911 -23.114614 -28.7502318475 146.99074
 -30.3482526149 -23.256886 -1.10092333462 156.29811 -27.287078917 20.504869
 -28.7361912394 146.99916 -27.3139957758 20.615005 -1.1122558859 155.47269
131.5480313 -0.0643589102049 -29.320217 -29.5378290429 -24.590553 -27.9244166053 145.9382
 -29.5183489824 -24.696354 -1.10884304119 155.19063 -27.2552877415 20.035213
 -27.9121454496 145.88689 -27.2771110543 20.139175 -1.12488547383 154.30022
137.7979375 -0.0722231197541 -30.773808 -28.7421642086 -26.025702 -27.1250834999 144.8481
 -28.709506231 -26.186506 -1.12181693545 154.07907 -27.224768619 19.507219
 -27.126323057 144.8148 -27.2500358965 19.564535 -1.13316680218 153.14459
144.0478438 -0.0798916049415 -32.258553 -27.9592574976 -27.495684 -26.3627642062 143.70372
 -27.9281057709 -27.680483 -1.13150883615 152.94566 -27.1947771376 18.987818
 -26.3545360616 143.60239 -27.2120593734 18.942066 -1.14719801277 151.96838
150.29775 -0.0876625901341 -33.733948 -27.214966247 -28.925303 -25.6279839734 142.6098
 -27.191758331 -29.137896 -1.14266937397 151.82298 -27.1837166822 18.429171
 -25.621704939 142.408 -27.194460554 18.40053 -1.15909873476 150.79416
156.5476563 -0.0993447708865 -35.21896 -26.5062265171 -30.39024 -24.9184892177 141.42828
 -26.473673728 -30.581278 -1.14896059761 150.69933 -27.1751931672 17.863628
 -24.9100215781 141.24838 -27.1909725358 17.849722 -1.16799906999 149.62775
162.7975625 -0.108422701448 -36.723877 -25.811296869 -31.845713 -24.2450708999 140.21814
 -25.7772450401 -32.065468 -1.16010696543 149.56018 -27.1891952668 17.261057
 -24.2259605844 140.02469 -27.2062461535 17.287477 -1.17814225668 148.47125
169.0474688 -0.122144046558 -38.23806 -25.1514578132 -33.305042 -23.5863860112 139.0173
 -25.1234932666 -33.563648 -1.17238625329 148.42909 -27.2120571816 16.697243
 -23.5801874838 138.83981 -27.2366370055 16.737925 -1.18983734696 147.29837
175.297375 -0.131697349352 -39.756531 -24.5106675771 -34.75375 -22.9564484413 137.75345
 -24.4741534741 -35.050663 -1.17986198135 147.32106 -27.252881236 16.085804
 -22.9475315736 137.64458 -27.2825283536 16.196165 -1.20196255646 146.11679
181.5472813 -0.145374987895 -41.302017 -23.8945194422 -36.216503 -22.3500320038 136.49953
 -23.8558394527 -36.486313 -1.18981423729 146.17227 -27.3197393524 15.438586
 -22.3399548963 136.40549 -27.346583328 15.638744 -1.21448340509 144.95276
187.7971875 -0.160029134623 -42.832539 -23.2953206541 -37.688637 -21.7618585828 135.21822
 -23.2707586448 -37.956993 -1.19926783217 145.04121 -27.4067993759 14.954556
 -21.7557938274 135.15149 -27.4240065939 15.046002 -1.22797104188 143.78647
194.0470938 -0.17476937425 -44.380081 -22.7199559669 -39.133759 -21.1952621483 133.96193
 -22.6969213911 -39.388126 -1.20983868705 143.90166 -27.5067510493 14.338865
 -21.1883353468 133.86317 -27.5268594892 14.472122 -1.24130109212 142.60042
200.297 -0.192964729341 -45.94421 -22.1634286807 -40.593288 -20.6417891007 132.68245
 -22.1407279545 -40.843304 -1.22085187034 142.76456 -27.6175435604 13.79318
 -20.6376143497 132.57056 -27.6362301518 13.946116 -1.25290038049 141.4146
206.5469063 -0.213564403666 -47.51659 -21.6160154411 -42.094429 -20.1153526647 131.36067
 -21.5999511396 -42.323353 -1.22951693687 141.61497 -27.7536618261 13.290771
 -20.107926854 131.25551 -27.7692149735 13.350235 -1.26827973358 140.25566
212.7968125 -0.232505388452 -49.112976 -21.0959667372 -43.56509 -19.5936704157 130.03621
 -21.0764641261 -43.769398 -1.2414808576 140.47699 -27.9152637383 12.769676
 -19.5911487957 129.9064 -27.9283556948 12.822087 -1.27967870828 139.06857
219.0467188 -0.253214098736 -50.712429 -20.5818229184 -45.062115 -19.0930897087 128.69258
 -20.5693792449 -45.217239 -1.2524428577 139.34091 -28.1074444153 12.314098
 -19.090811762 128.57855 -28.1172625745 12.325701 -1.29547340932 137.8712
225.296625 -0.273773565625 -52.301159 -20.0845622378 -46.545826 -18.6051538929 127.33662
 -20.0690478993 -46.701035 -1.26225658709 138.18448 -28.317148813 11.837706
 -18.5986294287 127.22717 -28.3275203686 11.803705 -1.30911880262 136.66402
231.5465313 -0.299805065393 -53.923256 -19.6085002548 -48.050575 -18.1307486008 125.97213
 -19.5906396045 -48.194893 -1.27434246536 137.03487 -28.5551388421 11.358906
 -18.1283420486 125.86849 -28.5723928925 11.391743 -1.32319390578 135.46494
237.7964375 -0.327550563791 -55.558601 -19.1299420816 -49.516045 -17.6657385162 124.59414
 -19.122620501 -49.729465 -1.2873068268 135.88281 -28.8289620733 10.953998
 -17.6642585486 124.47964 -28.8346324316 11.064906 -1.33974151863 134.25377
244.0463438 -0.353886919259 -57.216206 -18.6693037273 -51.033375 -17.2197685338 123.19985
 -18.6608257209 -51.235569 -1.29824928798 134.71619 -29.1357970313 10.692511
 -17.217021766 123.05056 -29.1438961481 10.773754 -1.35453006847 133.04019
250.29625 -0.380734881637 -58.874599 -18.2222724768 -52.561966 -16.7834233193 121.81287
 -18.2159405713 -52.767414 -1.31008016164 133.54152 -29.4828647677 10.474406
 -16.7764246528 121.65035 -29.4885389112 10.596676 -1.37115086958 131.83658
256.5461563 -0.408503447558 -60.547333 -17.7848976388 -54.08255 -16.360718641 120.40188
 -17.7783756996 -54.29229 -1.32463371996 132.3878 -29.8757628178 10.525569
 -16.3504877594 120.23151 -29.8759355715 10.606277 -1.38896678188 130.61961
262.7960625 -0.444726909271 -62.237751 -17.3579449704 -55.635265 -15.9394619908 118.92678
 -17.3565873837 -55.837318 -1.3366704027 131.20111 -30.3088399187 10.629315
 -15.9367652295 118.81287 -30.313259391 10.697671 -1.40639200879 129.39453
269.0459688 -0.479305343304 -63.940605 -16.9465741285 -57.162369 -15.5392153035 117.49574
 -16.9400163487 -57.360939 -1.35371015052 130.02788 -30.7907168336 11.010329
 -15.5352532388 117.35011 -30.8024594253 11.048066 -1.42642114983 128.18121
275.295875 -0.515988502096 -65.629562 -16.5427289547 -58.73143 -15.1445695293 116.04061
 -16.5398432251 -58.892159 -1.36700201428 128.85043 -31.328720417 11.542358
 -15.1421417896 115.92274 -31.3318083992 11.629122 -1.44506504833 126.96087
281.5457813 -0.555356908358 -67.380249 -16.1474023288 -60.300262 -14.7609743421 114.58416
 -16.1464905451 -60.465912 -1.38001388784 127.66463 -31.9452581725 12.534442
 -14.7597392806 114.4418 -31.9499254291 12.562178 -1.46502183386 125.75138
287.7956875 -0.597278851985 -69.123955 -15.7668917681 -61.849358 -14.3884682832 113.09963
 -15.7624004997 -62.020542 -1.39783341776 126.49781 -32.6298605828 13.983836
 -14.3865218616 112.95149 -32.6387209629 14.085146 -1.48602343628 124.52474
294.0455938 -0.640323674932 -70.880043 -15.3916189778 -63.458401 -14.0242628436 111.59371
 -15.384723776 -63.590038 -1.41395493127 125.30156 -33.3773604576 16.142361
 -14.0220471445 111.44711 -33.3835575493 16.127348 -1.50653582165 123.30231
300.2955 -0.687385116227 -72.648071 -15.026726061 -65.030823 -13.6715849153 110.08515
 -15.0217662078 -65.203407 -1.43145847414 124.1163 -34.2157030428 19.134634
 -13.669336342 109.94508 -34.2298873184 19.084848 -1.5302613451 122.07174
306.5454063 -0.737421347634 -74.440887 -14.6742688714 -66.624924 -13.3257419425 108.58167
 -14.6674574152 -66.782181 -1.45167224797 122.93874 -35.1316478989 23.302696
 -13.3291595403 108.43409 -35.1464870742 23.232046 -1.55293805716 120.85777
312.7953125 -0.788664727862 -76.247993 -14.327142048 -68.220665 -12.9884614778 107.06046
 -14.3233371142 -68.404732 -1.47185826285 121.73029 -36.100870268 29.215012
 -12.9923333921 106.90388 -36.107710921 29.224867 -1.58022624146 119.63863
319.0452188 -0.843423574258 -78.062088 -13.9869139811 -69.866768 -12.6627902244 105.5187
 -13.9827441464 -70.043587 -1.48973842056 120.53437 -37.0171868929 37.04575
 -12.6659822455 105.36993 -37.0269593102 37.204655 -1.60266718252 118.42274
325.295125 -0.898113040689 -79.888107 -13.6573789369 -71.470085 -12.3436621178 103.98457
 -13.655262021 -71.66143 -1.51356961707 119.3479 -37.7371484549 47.656544
 -12.3459371332 103.83923 -37.7722895214 47.759647 -1.63356644173 117.21436
331.5450313 -0.959261648836 -81.738419 -13.3359217048 -73.119324 -12.0339709291 102.43932
 -13.3321314256 -73.33268 -1.5360191507 118.131 -38.1092812789 60.429203
 -12.0358096118 102.28764 -38.1073943489 60.396584 -1.66204668967 115.99284
337.7949375 -1.02416984996 -83.580429 -13.0183405125 -74.739731 -11.7277394887 100.87716
 -13.0201202143 -74.978088 -1.55764370608 116.9325 -37.8734923621 73.965637
 -11.7295043132 100.7176 -37.90626878 74.055595 -1.69259507513 114.77409
344.0448438 -1.08790192713 -85.450958 -12.7082148303 -76.415504 -11.4263216973 99.286316
 -12.7143902164 -76.616112 -1.58342327168 115.70393 -37.124238142 86.426254
 -11.4325527467 99.137032 -37.1049450935 86.53495 -1.72700736913 113.56434
350.29475 -1.15832971123 -87.308075 -12.4098699332 -78.049171 -11.1348232289 97.703087
 -12.4179775445 -78.282043 -1.60657066395 114.50026 -36.0085657022 96.610497
 -11.1426768317 97.579025 -35.9997166253 96.712448 -1.75755047341 112.34749
356.5446563 -1.23070210923 -89.176147 -12.1199316947 -79.720428 -10.854372964 96.086411
 -12.1291510333 -79.945313 -1.63398944794 113.28954 -34.7116042169 104.12741
 -10.864065264 95.993095 -34.7230938424 104.25189 -1.79161828942 111.11684
362.7945625 -1.30765207416 -91.089462 -11.8380165659 -81.417931 -10.5831853279 94.495934
 -11.8483871928 -81.639648 -1.66219141305 112.0555 -33.4178254378 109.63
 -10.5933179317 94.380989 -33.429654166 109.69585 -1.82913321794 109.89042
369.0444688 -1.38769296773 -92.987701 -11.5655051802 -83.125893 -10.3165159629 92.864693
 -11.5710795879 -83.318199 -1.6926561868 110.83321 -32.1768321285 113.48212
 -10.3279349278 92.773903 -32.1780430247 113.56388 -1.86185275815 108.64364
375.294375 -1.47023190537 -94.8825 -11.291970116 -84.798798 -10.0615668161 91.251488
 -11.3043579388 -85.00927 -1.71935949491 109.60503 -31.0044283312 116.17178
 -10.0705328448 91.153679 -31.0081354189 116.25723 -1.90343181363 107.43285
381.5442813 -1.55627114361 -96.801216 -11.0322409304 -86.498489 -9.80923889486 89.610313
 -11.0448892059 -86.687393 -1.75323961059 108.39597 -29.9025432565 117.88855
 -9.82108612681 89.543465 -29.9129697267 118.01282 -1.9405593424 106.19971
387.7941875 -1.6461562041 -98.725044 -10.7765925812 -88.20153 -9.56415684539 88.009468
 -10.7906607854 -88.396217 -1.78518559045 107.15694 -28.8817401358 118.99979
 -9.57611252968 87.916672 -28.8899651138 119.16483 -1.98295944771 104.96416
394.0440938 -1.73942470013 -100.65546 -10.5312699431 -89.919991 -9.32975275789 86.356262
 -10.5491225248 -90.096848 -1.81873086216 105.92954 -27.9392725919 119.64439
 -9.34205085273 86.269585 -27.9407577037 119.79053 -2.0264489072 103.73616
400.294 -1.83424026416 -102.58005 -10.2894464685 -91.626137 -9.10175673503 84.711296
 -10.3073217494 -91.795105 -1.85216978604 104.70255 -27.0673580555 119.92997
 -9.11205063525 84.641991 -27.061361782 120.02649 -2.07188598831 102.52665
406.5439063 -1.93345005196 -104.5274 -10.0602142214 -93.356209 -8.87454539867 83.07679
 -10.0754210707 -93.49704 -1.88749926278 103.47231 -26.2375705726 119.8364
 -8.88684535919 82.990341 -26.2354438212 119.95728 -2.11260138613 101.31462
412.7938125 -2.0386782102 -106.47679 -9.83310371487 -95.04026 -8.66059541827 81.433823
 -9.8530579203 -95.199348 -1.92277479665 102.26506 -25.4728104868 119.60768
 -8.67056990197 81.361015 -25.4681297902 119.71546 -2.16036066765 100.11031
419.0437188 -2.14598422785 -108.40825 -9.61886441663 -96.760391 -8.45497642287 79.773148
 -9.63773170612 -96.899925 -1.96084422443 101.04987 -24.7552709298 119.10697
 -8.46320920086 79.717049 -24.7471221241 119.2202 -2.20617388809 98.904152
425.293625 -2.25764310755 -110.36774 -9.41030403627 -98.465523 -8.25152165776 78.129677
 -9.42787186344 -98.611023 -2.00130971249 99.821236 -24.0775431667 118.48936
 -8.26446212837 78.058487 -24.0758089386 118.51144 -2.25255345152 97.700157
431.5435313 -2.3711329221 -112.31178 -9.20505063392 -100.16015 -8.05706086564 76.495567
 -9.22456409437 -100.30901 -2.03982783914 98.624222 -23.438497229 117.75984
 -8.0705799783 76.433601 -23.4342623791 117.89723 -2.30052182186 96.490387
437.7934375 -2.49077442832 -114.27403 -9.00710877087 -101.89404 -7.87029452483 74.847778
 -9.02731324336 -102.01729 -2.08107773538 97.402725 -22.8370256944 116.90856
 -7.88393800215 74.783577 -22.830780544 116.99196 -2.3525371939 95.311859
444.0433438 -2.61062123642 -116.22227 -8.81622768741 -103.57679 -7.69060531879 73.215927
 -8.83501198026 -103.70754 -2.12214685131 96.206505 -22.2599686668 116.01579
 -7.70238235504 73.153053 -22.2581502321 116.07671 -2.40317406941 94.129608
450.29325 -2.73589746876 -118.19097 -8.62978268552 -105.26611 -7.51659988914 71.567368
 -8.65016161711 -105.4065 -2.16304126186 95.020271 -21.7175168774 114.9992
 -7.52566121745 71.523216 -21.7132454055 115.07584 -2.45508774668 92.941612
456.5431563 -2.86600062662 -120.10952 -8.45044282938 -106.97601 -7.34685102553 69.95195
 -8.47071044602 -107.0714 -2.2074460229 93.806007 -21.1992247537 113.93742
 -7.35907396469 69.907333 -21.197341376 114.00047 -2.50736967553 91.793526
462.7930625 -2.99864895791 -122.07706 -8.27433383899 -108.66227 -7.18155431181 68.329933
 -8.29657180089 -108.75249 -2.25080499994 92.616554 -20.6993099848 112.84682
 -7.19379139171 68.282951 -20.6962337123 112.90131 -2.56316377327 90.63945
469.0429688 -3.13408227184 -124.02841 -8.10933049187 -110.34186 -7.02714144919 66.724747
 -8.12437598888 -110.42509 -2.29695872665 91.435867 -20.2314413822 111.72136
 -7.03652530342 66.665535 -20.2322069682 111.757 -2.61932410376 89.505058
475.292875 -3.27423259186 -125.97346 -7.94848876243 -112.0082 -6.87715186554 65.130302
 -7.96423846074 -112.10692 -2.34383771572 90.250069 -19.7807317753 110.57153
 -6.88694183511 65.046944 -19.7816535453 110.587 -2.67829504714 88.363617
481.5427813 -3.4169867627 -127.88947 -7.79247139284 -113.69158 -6.72655515669 63.489964
 -7.80552572612 -113.75532 -2.38873186778 89.07563 -19.3519533359 109.32909
 -6.74030187134 63.444973 -19.3526052075 109.3194 -2.7320271826 87.236328
487.7926875 -3.56096791622 -129.82874 -7.63976697853 -115.32657 -6.58729110835 61.934353
 -7.65173891786 -115.41566 -2.4377365761 87.900917 -18.9377468937 108.11985
 -6.59802498377 61.86235 -18.9378966955 108.13984 -2.79432932717 86.115623
494.0425938 -3.70973107109 -131.74295 -7.49759053967 -116.9649 -6.45171647491 60.317696
 -7.50855916561 -117.04897 -2.48825693145 86.759666 -18.5456925434 106.82254
 -6.4671633187 60.272388 -18.5509851827 106.85506 -2.85459163914 84.985489
500.2925 -3.8628204389 -133.66362 -7.35601071153 -118.59772 -6.32211293755 58.744858
 -7.36717323593 -118.67525 -2.53673115 85.598488 -18.1659937833 105.58111
 -6.33361368243 58.695599 -18.1701589065 105.61354 -2.91401558818 83.882774
506.5424063 -4.01889323905 -135.57941 -7.21858076831 -120.2425 -6.19422277757 57.180378
 -7.23172078526 -120.3308 -2.58647443638 84.424263 -17.8009168235 104.27727
 -6.20540662789 57.105347 -17.8028593257 104.29993 -2.97443372855 82.766167
512.7923125 -4.17849363451 -137.44156 -7.0889880171 -121.8494 -6.07591974202 55.614258
 -7.10102161253 -121.92608 -2.63707668844 83.294167 -17.4533815471 102.97952
 -6.08317835176 55.576775 -17.4560465529 102.98895 -3.03330301684 81.65995
519.0422188 -4.33792889422 -139.3358 -6.96161379541 -123.45605 -5.95884713669 54.073826
 -6.97552216954 -123.54134 -2.69003426703 82.143791 -17.1168620463 101.6538
 -5.96712072922 54.016731 -17.1180626823 101.66402 -3.09830337886 80.566727
525.292125 -4.50365504613 -141.20012 -6.84181156227 -125.0597 -5.84394270125 52.527988
 -6.85421149677 -125.13818 -2.7416866016 81.014244 -16.7908137822 100.29134
 -5.85321434087 52.474152 -16.7932180624 100.32603 -3.15655866028 79.48494
531.5420313 -4.67207830387 -143.06505 -6.721687372 -126.63846 -5.73474203975 51.021667
 -6.73990329332 -126.71467 -2.79638568867 79.881752 -16.4799295458 98.980774
 -5.74451561198 50.969597 -16.4793081119 98.99025 -3.2224427956 78.405373
537.7919375 -4.84211504647 -144.90944 -6.61011185035 -128.22406 -5.63543798028 49.505894
 -6.63002047921 -128.28186 -2.84745616201 78.737129 -16.1888540205 97.61161
 -5.6437339 49.431911 -16.1812032153 97.619194 -3.28581743065 77.347122
544.0418438 -5.01578858606 -146.74089 -6.50181595101 -129.78745 -5.53491096302 47.989597
 -6.52457044211 -129.84015 -2.90128889403 77.625801 -15.8984174776 96.253929
 -5.54214214166 47.929115 -15.8933032848 96.262573 -3.34778833613 76.285118
550.29175 -5.19097557459 -148.57741 -6.39650345253 -131.35004 -5.43556777246 46.49332
 -6.41790021009 -131.39589 -2.95376363282 76.513023 -15.6204097273 94.904274
 -5.44447925846 46.435043 -15.6132901499 94.885696 -3.40854404695 75.253578
556.5416563 -5.36471414698 -150.39694 -6.29930993489 -132.88596 -5.34707820777 44.996738
 -6.31728847272 -132.92996 -3.00706160818 75.404625 -15.3594890131 93.51812
 -5.3552188985 44.940105 -15.3503969658 93.51963 -3.47259993695 74.221573
562.7915625 -5.54661469801 -152.1978 -6.20474452078 -134.4054 -5.2598259696 43.55405
 -6.22425369114 -134.43796 -3.06212851581 74.317673 -15.1020631295 92.186996
 -5.2695794534 43.498062 -15.0956451807 92.186028 -3.53289823337 73.190361
569.0414688 -5.7279850163 -154.00169 -6.11253496344 -135.92255 -5.18017623088 42.071053
 -6.13234534729 -135.9715 -3.11281205986 73.228668 -14.8595488216 90.817032
 -5.18822140869 42.029049 -14.8501000506 90.84288 -3.59296740469 72.174675
575.291375 -5.91127138977 -155.76984 -6.02552386292 -137.43022 -5.10120402494 40.634422
 -6.04271798769 -137.47452 -3.16928488543 72.149147 -14.622335302 89.488419
 -5.10765544797 40.592121 -14.6144218763 89.485687 -3.65514001055 71.158249
581.5412813 -6.0963463816 -157.56653 -5.9392374782 -138.91249 -5.02584753671 39.204273
 -5.95725412277 -138.96198 -3.22194988653 71.07 -14.3921180945 88.134491
 -5.03050906668 39.158443 -14.3866810693 88.175095 -3.71499639648 70.145561
587.7911875 -6.28948775729 -159.35008 -5.85553881767 -140.38963 -4.95211418826 37.781822
 -5.87649254854 -140.442 -3.27430654228 70.013123 -14.1708842552 86.792366
 -4.95890782784 37.757278 -14.1635199236 86.83654 -3.77475074421 69.161987
594.0410938 -6.47647694501 -161.07007 -5.77649041369 -141.84413 -4.88472755157 36.386585
 -5.79878859179 -141.88161 -3.32920816859 68.926453 -13.9601608839 85.476837
 -4.893533989 36.375076 -13.9498558699 85.530289 -3.83838872622 68.174973
600.291 -6.6714443959 -162.79176 -5.70383452326 -143.29993 -4.81951848614 35.009075
 -5.72548952899 -143.32823 -3.38343710797 67.854881 -13.7574791536 84.178261
 -4.82769046336 34.981598 -13.7474873294 84.199951 -3.89876586947 67.210159
606.5409063 -6.86870469705 -164.51347 -5.63521671063 -144.73332 -4.75459446359 33.631916
 -5.65012345285 -144.74181 -3.43738687294 66.810326 -13.5565652623 82.858696
 -4.76317001683 33.606922 -13.5519147869 82.879196 -3.95589352662 66.252495
612.7908125 -7.06121451801 -166.21684 -5.56288363563 -146.13837 -4.69426186566 32.25626
 -5.58082334501 -146.15019 -3.48596210352 65.751312 -13.3676649328 81.580612
 -4.69955674795 32.263695 -13.3525926135 81.593102 -4.01719702593 65.276276
619.0407188 -7.26322999508 -167.90535 -5.49639815236 -147.55127 -4.63553246044 30.912477
 -5.51585161207 -147.54166 -3.54193599784 64.690796 -13.1783434944 80.302734
 -4.64379063527 30.901358 -13.1673658228 80.284096 -4.07841117463 64.332092
625.290625 -7.46021950734 -169.55014 -5.43307859637 -148.92053 -4.58043102506 29.584364
 -5.44973201043 -148.93877 -3.59027363171 63.645008 -13.0008039354 79.03714
 -4.58835985836 29.572401 -12.9875166851 79.037796 -4.13367235894 63.367558
631.5405313 -7.65841874053 -171.21712 -5.37425942453 -150.31841 -4.52774306466 28.244715
 -5.38901804305 -150.32265 -3.64494248909 62.567715 -12.8272389302 77.754387
 -4.53615696378 28.233095 -12.817318957 77.745621 -4.19201405217 62.395069
637.7904375 -7.86344243364 -172.81718 -5.31697789569 -151.66263 -4.48035266812 26.943521
 -5.33113449963 -151.65587 -3.69614156411 61.529533 -12.6604623375 76.504967
 -4.48389331159 26.940296 -12.6480064359 76.497406 -4.25284008294 61.436485
644.0403438 -8.06845500871 -174.39905 -5.26157383108 -153.00674 -4.43394831347 25.652246
 -5.27322305496 -153.00185 -3.74433488123 60.492352 -12.4960259761 75.249603
 -4.4380219657 25.672651 -12.4848203626 75.253334 -4.30325127493 60.481441
650.29025 -8.27488133787 -176.0285 -5.20529893271 -154.35738 -4.38505431774 24.365879
 -5.22118333004 -154.35246 -3.7975766596 59.443279 -12.3387504754 74.007965
 -4.39183110719 24.373203 -12.3264668294 74.016579 -4.36356933758 59.514404
656.5401563 -8.48237661907 -177.57169 -5.15306950751 -155.67336 -4.34226020213 23.090771
 -5.16835367085 -155.66264 -3.84648766789 58.393433 -12.1837879227 72.766228
 -4.34503326883 23.107533 -12.1696914868 72.780075 -4.41856421834 58.546974
662.7900625 -8.69148956653 -179.11662 -5.10418333138 -156.98273 -4.30092367935 21.837328
 -5.11439417269 -156.97678 -3.89910808455 57.354118 -12.0334604998 71.544395
 -4.30309240088 21.854618 -12.022835811 71.543274 -4.47278390247 57.619278
669.0399688 -8.90243714635 179.33598 -5.05617467477 -158.28723 -4.25971910481 20.617062
 -5.06822701337 -158.27243 -3.9502885442 56.306484 -11.8828822323 70.32547
 -4.26516267715 20.609177 -11.8760218898 70.30616 -4.52814288693 56.679211
675.289875 -9.11452868192 177.83405 -5.00736108761 -159.58415 -4.22100886701 19.393148
 -5.02096308342 -159.54239 -3.99917426615 55.26033 -11.7428595818 69.119194
 -4.22776297154 19.392521 -11.7339505575 69.091003 -4.58113518589 55.744724
681.5397813 -9.32501092709 176.36092 -4.96344648856 -160.86279 -4.18505197082 18.172588
 -4.97664262459 -160.81715 -4.04962736513 54.213593 -11.6071895416 67.923836
 -4.19415435356 18.175123 -11.598784653 67.891594 -4.6363091809 54.791454
687.7896875 -9.54024755426 174.92677 -4.92226584757 -162.1136 -4.15351117007 16.965382
 -4.93374461328 -162.07857 -4.09408314974 53.176525 -11.4748528503 66.717201
 -4.15794960325 16.954643 -11.4676550887 66.679276 -4.6855108361 53.835293
694.0395938 -9.75351800327 173.44821 -4.88041488205 -163.34503 -4.12197772856 15.781315
 -4.89435884785 -163.33511 -4.14150354291 52.161865 -11.3462536681 65.537506
 -4.12602167456 15.779766 -11.3364088583 65.523354 -4.73874144049 52.904812
700.2895 -9.96851698611 172.04259 -4.84364884986 -164.58076 -4.09057013495 14.589242
 -4.85412810828 -164.55795 -4.19144787691 51.11726 -11.219558977 64.327568
 -4.09581365367 14.580422 -11.2166636928 64.322273 -4.7847736088 51.965427
706.5394063 -10.1772629355 170.64407 -4.80653976739 -165.80611 -4.06259988375 13.417593
 -4.81700080544 -165.78885 -4.23507335946 50.081757 -11.0996314772 63.170719
 -4.06750361125 13.40751 -11.0955948213 63.146908 -4.83391182436 51.009815
712.7893125 -10.3956581298 169.25127 -4.77111611597 -167.00893 -4.0356702078 12.266562
 -4.78285309971 -167.00189 -4.28284639454 49.05814 -10.9848107056 61.999622
 -4.0412570328 12.26608 -10.9812182984 61.989288 -4.88299891073 50.090038
719.0392188 -10.6096669769 167.86302 -4.73307817241 -168.2195 -4.0059866388 11.130051
 -4.74477466352 -168.18767 -4.32998173788 48.025005 -10.8667412214 60.865524
 -4.01026162876 11.100821 -10.8623473629 60.826183 -4.9317567104 49.17083
725.289125 -10.8277113149 166.55486 -4.70265212726 -169.41588 -3.98250175587 9.9940195
 -4.71207437845 -169.37865 -4.37340928361 46.998264 -10.7565020811 59.700451
 -3.98678741225 9.9620876 -10.7538197235 59.665672 -4.97715086335 48.244656